VARIABLES = z, um, vm, wm, uum, vvm, wwm, uvm, uwm, vwm  
ZONE T = '137.086595874'
